122
Lattice="0.0 8.924999999999999 8.924999999999999 8.924999999999999 0.0 8.924999999999999 8.924999999999999 8.924999999999999 0.0" Properties=species:S:1:pos:R:3:tags:I:1:forces:R:3 energy=47927.18649353066 pbc="T T T"
C       -1.96012486      -1.96003579      -1.96058477        1      -0.00382549      -0.00377331      -0.00383083
C        0.55555540       0.55613395      -2.72292453        1      -0.00322025      -0.00326101      -0.00136769
C        3.08042015       3.10200840      -2.98094915        1      -0.00180008      -0.00269373      -0.00185920
C        5.66295314       5.64819297      -3.07900000        1      -0.00108481      -0.00132506      -0.00083276
C        8.17620527       8.18420744      -4.08386585        1      -0.00160947      -0.00132692      -0.00316392
C        0.55435991      -2.72257158       0.55419079        1      -0.00306171      -0.00124143      -0.00300754
C        3.03976560      -0.11683184      -0.11786249        1      -0.00520313      -0.00297527      -0.00307667
C        5.50995929       2.49159337      -0.32742794        1      -0.00015989      -0.00238598       0.00149092
C        8.02213040       5.05529250      -0.37588313        1      -0.00092188       0.00082929      -0.00025251
C       10.65267352       7.41191694      -1.53715836        1      -0.00206590      -0.00047356       0.00177477
C        3.08419292      -2.98957768       3.09998956        1      -0.00231707      -0.00100163      -0.00200177
C        5.49635359      -0.32265892       2.49943160        1      -0.00016459       0.00128800      -0.00295968
C        8.70386536       1.56300279       1.56195184        1      -0.00462569       0.00258422       0.00205303
C       10.60766964       4.77825895       2.10377313        1       0.00173279       0.00183108       0.00120349
C       13.06197464       7.39919357       1.17090245        1      -0.00166715      -0.00138276       0.00073294
C        5.65810571      -3.08410000       5.64932762        1      -0.00124597      -0.00094828      -0.00097319
C        8.03058601      -0.41312839       5.02403213        1       0.00010776      -0.00051576       0.00014644
C       10.62334363       2.06963743       4.71846554        1       0.00277576       0.00206441       0.00315199
C       12.90031487       5.10287459       5.05766097        1       0.00167225      -0.00523838      -0.00364146
C       15.79583551       6.80419696       3.50747784        1      -0.00067048       0.00004518      -0.00007214
C        8.16715332      -4.08935121       8.19076513        1      -0.00129026      -0.00280847      -0.00146257
C       10.64830198      -1.52775560       7.42142666        1      -0.00234534       0.00137786      -0.00063832
C       13.05530185       1.18448649       7.36171270        1      -0.00186311       0.00007593      -0.00242290
C       15.79428059       3.52597107       6.82011522        1      -0.00125713      -0.00068810      -0.00087658
C       18.27839191       6.08327026       6.07977566        1       0.00182918       0.00098204       0.00073728
C       -2.72292034       0.55601646       0.55491226        1      -0.00137798      -0.00309257      -0.00299277
C       -0.11579008       3.03635054      -0.11489785        1      -0.00370763      -0.00601632      -0.00338053
C        2.45643890       5.51084031      -0.35534997        1      -0.00212825      -0.00119477      -0.00059506
C        4.96744531       8.07412875      -0.46196397        1       0.00024315       0.00004722      -0.00041281
C        7.40648058      10.65904032      -1.52533913        1      -0.00011420      -0.00203487       0.00234964
C       -0.11772264      -0.11581440       3.04273191        1      -0.00358837      -0.00321466      -0.00573530
C        2.38113142       2.38731722       2.38812313        1       0.00232991       0.00347986       0.00273841
C        4.92826262       5.01165521       2.15434138        1       0.00149835       0.00310028       0.00464917
C        7.51176636       7.68874946       2.04431395        1      -0.00163974      -0.00061618       0.00626637
C       10.06832430      10.03799738       1.07455695        1      -0.00011509       0.00038645       0.00026337
C        2.46396216      -0.32128578       5.52042360        1      -0.00299931      -0.00176526      -0.00182741
C        4.91357651       2.17699668       4.98344215        1       0.00066584       0.00263823       0.00314744
C        7.68801888       4.27331698       4.35402983        1       0.00921476       0.00000497      -0.00329977
C       10.02648856       7.41629472       4.64731111        1       0.00170661      -0.00386260       0.00317294
C       12.61079324       9.90768744       3.73078541        1       0.00339959      -0.00169246      -0.00116812
C        4.97263961      -0.45359088       8.06999968        1      -0.00022402      -0.00116818       0.00036847
C        7.53425093       1.99339430       7.63102192        1      -0.00175270       0.00710198      -0.00039506
C       10.08886416       4.57285544       7.47338123        1       0.00592274       0.00280376      -0.00391174
C       12.20656520       7.54687150       7.51194661        1      -0.00004065       0.00449900       0.00339121
C       15.13655810       9.16635156       6.27894925        1       0.00195994      -0.00059933      -0.00147797
C        7.38012325      -1.54802649      10.67855942        1       0.00015154       0.00261927      -0.00212300
C       10.06303301       1.07497094      10.03020603        1      -0.00147560       0.00000962       0.00072844
C       12.74113914       3.54715988      10.03495238        1       0.00302842       0.00228336      -0.00024907
C       15.11236795       6.26733642       9.14881227        1      -0.00028339      -0.00191561       0.00032306
C       17.79685252       8.61642302       8.66416257        1       0.00452659       0.00287787       0.00271261
C       -2.96589931       3.09853458       3.09370881        1      -0.00156587      -0.00311013      -0.00187820
C       -0.35915567       5.52356421       2.45895364        1      -0.00037569      -0.00089911      -0.00162229
C        1.82466160       8.40303276       1.82285910        1       0.00202774       0.00211684       0.00218456
C        4.93297253      10.65324860       2.10534989        1      -0.00008326      -0.00064644       0.00453237
C        7.48144844      13.04858130       1.21149745        1       0.00188472       0.00028961      -0.00016942
C       -0.31781627       2.46820676       5.53580545        1      -0.00021817      -0.00141142      -0.00203551
C        2.13321708       5.02234072       4.96303274        1       0.00501721       0.00164064       0.00056410
C        4.38820089       7.83646395       4.39186316        1       0.00449390       0.00078473       0.00520638
C        7.61091390       9.96094623       5.02508420        1      -0.00375923      -0.00089645       0.00145251
C        9.89986559      12.49390959       3.86444082        1      -0.00020944       0.00375110      -0.00268081
C        1.76892830       1.76588531       8.49962264        1       0.00130967       0.00130070       0.00128327
C        4.28459187       4.33967104       7.78782888        1       0.00519515       0.00585997       0.00423298
C        6.92143138       6.71273107       6.78540273        1      -0.00162524       0.00438726       0.00310745
C       11.20760545      10.97462878       6.80912026        1      -0.00530379      -0.00380082       0.00166417
C        4.91729153       2.10115059      10.65201334        1      -0.00032902       0.00465952      -0.00141150
C        7.58152459       4.90641992       9.91400822        1      -0.00576376       0.00015562       0.00191458
C       13.97952117      11.41412680       8.94501050        1       0.00595354       0.00273959      -0.00487691
C        7.48067698       1.22494520      13.02319681        1       0.00135396      -0.00059317       0.00091510
C        9.87778260       3.86566819      12.50087821        1       0.00014251      -0.00245900       0.00307897
C       11.29066450       6.69838063      10.90676316        1      -0.00271720      -0.00010602      -0.00304284
C       14.00125718       8.93854868      11.41898811        1       0.00593720      -0.00421965       0.00121368
C       16.98826189      11.17598149      11.11277106        1      -0.00259588       0.00169381       0.00191963
C       -3.07531029       5.65712620       5.65815128        1      -0.00039930      -0.00103793      -0.00094497
C       -0.36859778       8.02537759       5.06450307        1      -0.00049281      -0.00082310       0.00046439
C        2.10587370      10.66934685       4.92198068        1       0.00477982      -0.00060627      -0.00018754
C        5.26182494      12.80853606       5.23326688        1       0.00203740       0.00536094       0.00041780
C        6.74240998      15.83580045       3.43333735        1      -0.00212230      -0.00132158       0.00024804
C       -0.36117986       5.06727019       8.02330593        1      -0.00013020       0.00068606      -0.00074959
C        2.15262678       7.61676744       7.60871748        1       0.00708122       0.00043665       0.00062990
C        4.94819145      10.05020736       7.56153123        1       0.00225187      -0.00435519       0.00025413
C        7.98580416      12.14329014       7.92488391        1      -0.00161999       0.00543128       0.00265241
C        9.00885848      15.11424348       6.22490757        1      -0.00217750       0.00283793      -0.00174609
C        2.05835231       4.87935648      10.71592314        1       0.00554381      -0.00031241      -0.00141934
C        4.92578607       7.47918344      10.07735760        1       0.00194104       0.00059238      -0.00528954
C       11.28787542      13.98190173       8.86987554        1       0.00130920       0.00229547      -0.00584969
C        5.24825970       5.19765568      12.81695092        1       0.00235257      -0.00084701       0.00562788
C        8.04823387       7.74160851      12.11648287        1      -0.00141235       0.00393771       0.00577538
C       11.00365016      11.14056625      11.08062195        1      -0.00271635       0.00432499       0.00199322
C       14.29359503      14.34531094      11.09646788        1      -0.00300810      -0.00125138       0.00477017
C        6.73459352       3.44123417      15.82890899        1      -0.00128617       0.00053246      -0.00162138
C        9.10073495       6.20857206      15.15890325        1      -0.00195012      -0.00114087       0.00409245
C       11.30092674       8.88726081      13.85852902        1       0.00038630      -0.00814107       0.00440521
C       14.30061972      11.08383407      14.36326297        1      -0.00283293       0.00477195      -0.00128633
C       16.91185239      13.71227419      13.72900423        1      -0.00182472       0.00144391       0.00139502
C       -4.09518269       8.18228240       8.17396941        1      -0.00272629      -0.00130689      -0.00121160
C       -1.55128307      10.67518389       7.39350109        1       0.00163609      -0.00203844      -0.00069678
C        1.17574872      13.07356796       7.44899775        1      -0.00062518       0.00005237       0.00175528
C        3.42071505      15.83176000       6.72994522        1      -0.00009614      -0.00085843      -0.00305121
C        6.08508354      18.27251439       6.08546056        1       0.00065961       0.00060364       0.00092536
C       -1.54183192       7.40392553      10.66243122        1       0.00151968      -0.00070532      -0.00210493
C        1.01623708      10.05557397      10.04539509        1       0.00061114       0.00011154      -0.00051997
C        3.77683238      12.54771115       9.91942962        1      -0.00102787       0.00278861       0.00027772
C        6.18942333      15.12205293       8.96905455        1       0.00002999      -0.00047513      -0.00215086
C        8.63333478      17.77225583       8.65832770        1       0.00361848       0.00317151       0.00377964
C        1.14290889       7.41581253      13.10760325        1      -0.00171648       0.00128923       0.00029254
C        3.72095652       9.86234004      12.53370493        1       0.00060106       0.00082262       0.00339817
C        6.82298011      11.15134918      11.22619850        1      -0.00029461      -0.00828109      -0.00696740
C        8.75786173      14.15005842      11.40800670        1      -0.00282731       0.00072639       0.00160845
C       11.18244637      16.84142312      11.12614310        1       0.00241078       0.00138196       0.00172429
C        3.47226367       6.77385197      15.80871543        1      -0.00016875      -0.00280728      -0.00077388
C        6.23868129       9.00172103      15.06536234        1       0.00112915      -0.00196894      -0.00285453
C        8.83620683      11.42930527      14.09397570        1      -0.00359208       0.00260191       0.00385854
C       11.13603109      14.29460539      14.26717520        1       0.00437377      -0.00256674      -0.00328451
C       13.69548258      16.98751769      13.74182138        1       0.00229039      -0.00164431       0.00200999
C        6.08849145       6.07971244      18.28027790        1       0.00066717       0.00069637       0.00090277
C        8.60797623       8.67305134      17.77526073        1       0.00345117       0.00376100       0.00340352
C       11.20025223      11.08565026      16.81713962        1       0.00286466       0.00101914       0.00077507
C       13.66728531      13.76051804      16.98311093        1       0.00208360       0.00172840      -0.00179519
C       16.26784055      16.26667731      16.26705005        1       0.00254140       0.00289229       0.00304475
O        8.92500000       8.92500000       8.58881067        0       0.00187908      -0.00815724 -349471.68649007
H        9.68360200       8.92500000       9.09309467        0  263082.70867043       0.00066220  174735.84033243
H        8.16639800       8.92500000       9.09309467        0 -263082.72536124      -0.00126890  174735.83323497
